10
Step 0 (LJ reduced units, box L=5.0)
Ar 2.081099 3.590778 0.004186
Ar 1.518376 0.719707 0.480741
Ar 0.942496 1.736147 1.999446
Ar 2.675210 2.095683 3.423552
Ar 1.017235 4.399215 0.130236
Ar 3.353250 2.078099 2.777082
Ar 1.584308 1.240858 3.308839
Ar 4.843099 1.591699 3.474984
Ar 4.377818 4.461929 0.417762
Ar -0.675673 0.601989 5.067029
10
Step 10 (LJ reduced units, box L=5.0)
Ar 2.026036 3.494902 0.041798
Ar 1.584845 0.580349 0.673161
Ar 1.057990 1.817622 2.156523
Ar 2.341638 2.107814 3.554279
Ar 0.982326 4.473077 0.061814
Ar 3.534453 2.133687 2.832977
Ar 10.384076 3.588497 -4.015675
Ar 4.854836 1.839142 3.605680
Ar 4.336162 4.350661 0.343108
Ar -9.385143 -1.869646 11.830192
10
Step 20 (LJ reduced units, box L=5.0)
Ar 1.949888 3.419565 0.080034
Ar 1.650376 0.443168 0.868229
Ar 1.177918 1.897679 2.314917
Ar 2.021999 2.121170 3.674748
Ar 0.969247 4.526676 -0.007135
Ar 3.719858 2.221189 2.995566
Ar 19.178793 5.898828 -11.430983
Ar 4.849976 2.090037 3.726768
Ar 4.293775 4.239071 0.268357
Ar -18.094612 -4.341281 18.593354
10
Step 30 (LJ reduced units, box L=5.0)
Ar 1.858094 3.362787 0.116926
Ar 1.715335 0.307719 1.065040
Ar 1.305990 1.978107 2.485047
Ar 1.702157 2.132796 3.778438
Ar 0.972479 4.561949 -0.074684
Ar 3.927991 2.305155 3.181088
Ar 27.973511 8.209160 -18.846291
Ar 4.815019 2.344098 3.828223
Ar 4.250723 4.127248 0.193551
Ar -26.804082 -6.812916 25.356517
10
Step 40 (LJ reduced units, box L=5.0)
Ar 1.753079 3.324077 0.150953
Ar 1.779976 0.173536 1.262942
Ar 1.443533 2.061176 2.688286
Ar 1.374583 2.140619 3.847494
Ar 0.989043 4.579191 -0.139360
Ar 4.055931 2.375681 3.304553
Ar 36.768229 10.519491 -26.261599
Ar 4.858835 2.611495 3.992170
Ar 4.207562 4.015388 0.118737
Ar -35.513551 -9.284551 32.119680
10
Step 50 (LJ reduced units, box L=5.0)
Ar 1.636321 3.304712 0.180486
Ar 1.844469 0.040155 1.461459
Ar 1.583326 2.145488 2.913756
Ar 1.044962 2.146400 3.893690
Ar 1.017349 4.577088 -0.199542
Ar 4.092623 2.430250 3.355431
Ar 45.562946 12.829823 -33.676907
Ar 4.993842 2.894845 4.228718
Ar 4.164401 3.903527 0.043923
Ar -44.223021 -11.756186 38.882843
10
Step 60 (LJ reduced units, box L=5.0)
Ar 1.508588 3.308110 0.203166
Ar 1.908939 -0.093083 1.660079
Ar 1.718138 2.229184 3.141973
Ar 0.720422 2.152663 3.937047
Ar 1.056630 4.552222 -0.252873
Ar 4.153922 2.497236 3.430065
Ar 54.357664 15.140155 -41.092215
Ar 5.104166 3.165770 4.441499
Ar 4.121239 3.791667 -0.030890
Ar -52.932490 -14.227821 45.646006
10
Step 70 (LJ reduced units, box L=5.0)
Ar 1.370345 3.341035 0.214904
Ar 1.973410 -0.226322 1.858699
Ar 1.823178 2.310654 3.394989
Ar 0.426368 2.161231 3.955683
Ar 1.106422 4.497829 -0.295260
Ar 4.227212 2.572767 3.517983
Ar 63.152381 17.450486 -48.507523
Ar 5.201786 3.428070 4.640917
Ar 4.078078 3.679807 -0.105704
Ar -61.641960 -16.699456 52.409169
10
Step 80 (LJ reduced units, box L=5.0)
Ar 1.223615 3.411907 0.209812
Ar 2.037880 -0.359560 2.057319
Ar 1.908645 2.390115 3.657373
Ar 0.152826 2.171911 3.964997
Ar 1.164699 4.405490 -0.320818
Ar 4.305478 2.653266 3.612610
Ar 71.947099 19.760818 -55.922831
Ar 5.293488 3.685300 4.833579
Ar 4.034917 3.567947 -0.180517
Ar -70.351429 -19.171091 59.172331
10
Step 90 (LJ reduced units, box L=5.0)
Ar 1.072897 3.461224 0.219134
Ar 2.102350 -0.492799 2.255939
Ar 1.987234 2.468731 3.921418
Ar -0.112868 2.183543 3.972633
Ar 1.226965 4.334705 -0.360789
Ar 4.385740 2.736704 3.710894
Ar 80.741817 22.071149 -63.338139
Ar 5.382225 3.939486 5.022603
Ar 3.991756 3.456086 -0.255331
Ar -79.060899 -21.642725 65.935494
10
Step 100 (LJ reduced units, box L=5.0)
Ar 0.913242 3.432631 0.277534
Ar 2.166821 -0.626037 2.454558
Ar 2.064139 2.547100 4.185516
Ar -0.375939 2.195525 3.980135
Ar 1.298169 4.341830 -0.449839
Ar 4.466638 2.821910 3.811318
Ar 89.536534 24.381481 -70.753447
Ar 5.469388 4.191797 5.209568
Ar 3.948594 3.344226 -0.330144
Ar -87.770369 -24.114360 72.698657
10
Step 110 (LJ reduced units, box L=5.0)
Ar 0.765293 3.429077 0.315294
Ar 2.231291 -0.759276 2.653178
Ar 2.141280 2.625480 4.449449
Ar -0.638375 2.207597 3.987667
Ar 1.357667 4.323916 -0.518249
Ar 4.547537 2.908194 3.913086
Ar 98.331252 26.691813 -78.168755
Ar 5.555679 4.442931 5.395324
Ar 3.905433 3.232366 -0.404958
Ar -96.479838 -26.585995 79.461820
10
Step 120 (LJ reduced units, box L=5.0)
Ar 0.633545 3.450573 0.329929
Ar 2.295762 -0.892514 2.851798
Ar 2.219092 2.703938 4.713238
Ar -0.900812 2.219669 3.995199
Ar 1.400963 4.280952 -0.563534
Ar 4.628262 2.995150 4.015726
Ar 107.125970 29.002144 -85.584063
Ar 5.641473 4.693316 5.580353
Ar 3.862272 3.120505 -0.479772
Ar -105.189308 -29.057630 86.224983
10
Step 130 (LJ reduced units, box L=5.0)
Ar 0.516947 3.488694 0.326795
Ar 2.360232 -1.025753 3.050418
Ar 2.296980 2.782405 4.977008
Ar -1.163249 2.231741 4.002730
Ar 1.429109 4.221364 -0.591050
Ar 4.709043 3.082306 4.118581
Ar 115.920687 31.312476 -92.999371
Ar 5.727137 4.943489 5.765184
Ar 3.819111 3.008645 -0.554585
Ar -113.898777 -31.529265 92.988146
10
Step 140 (LJ reduced units, box L=5.0)
Ar 0.415064 3.538716 0.308808
Ar 2.424703 -1.158991 3.249038
Ar 2.374867 2.860872 5.240779
Ar -1.425686 2.243813 4.010262
Ar 1.442539 4.149874 -0.603713
Ar 4.789823 3.169463 4.221437
Ar 124.715405 33.622807 -100.414679
Ar 5.812800 5.193663 5.950015
Ar 3.775949 2.896785 -0.629399
Ar -122.608247 -34.000900 99.751308
10
Step 150 (LJ reduced units, box L=5.0)
Ar 0.328564 3.597895 0.277156
Ar 2.489173 -1.292230 3.447658
Ar 2.452755 2.939340 5.504550
Ar -1.688123 2.255885 4.017794
Ar 1.440588 4.069228 -0.602710
Ar 4.870604 3.256620 4.324292
Ar 133.510122 35.933139 -107.829987
Ar 5.898463 5.443837 6.134845
Ar 3.732788 2.784924 -0.704212
Ar -131.317716 -36.472535 106.514471
10
Step 160 (LJ reduced units, box L=5.0)
Ar 0.259493 3.664412 0.231740
Ar 2.553644 -1.425468 3.646278
Ar 2.530643 3.017807 5.768320
Ar -1.950559 2.267957 4.025325
Ar 1.421207 3.981242 -0.587944
Ar 4.951385 3.343777 4.427147
Ar 142.304840 38.243471 -115.245295
Ar 5.984126 5.694011 6.319676
Ar 3.689627 2.673064 -0.779026
Ar -140.027186 -38.944170 113.277634
10
Step 170 (LJ reduced units, box L=5.0)
Ar 0.212036 3.736702 0.171144
Ar 2.618114 -1.558707 3.844898
Ar 2.608530 3.096274 6.032091
Ar -2.212996 2.280029 4.032857
Ar 1.380212 3.887485 -0.557998
Ar 5.032165 3.430934 4.530003
Ar 151.099558 40.553802 -122.660603
Ar 6.069789 5.944185 6.504507
Ar 3.646466 2.561204 -0.853839
Ar -148.736655 -41.415805 120.040797
10
Step 180 (LJ reduced units, box L=5.0)
Ar 0.194061 3.812540 0.092291
Ar 2.682585 -1.691945 4.043518
Ar 2.686418 3.174741 6.295861
Ar -2.475433 2.292101 4.040389
Ar 1.309736 3.790179 -0.509795
Ar 5.112946 3.518090 4.632858
Ar 159.894275 42.864134 -130.075911
Ar 6.155452 6.194359 6.689338
Ar 3.603304 2.449344 -0.928653
Ar -157.446125 -43.887439 126.803960
10
Step 190 (LJ reduced units, box L=5.0)
Ar 0.212745 3.887693 -0.006373
Ar 2.747055 -1.825184 4.242138
Ar 2.764306 3.253208 6.559632
Ar -2.737870 2.304173 4.047921
Ar 1.202599 3.693558 -0.441780
Ar 5.193727 3.605247 4.735714
Ar 168.688993 45.174465 -137.491219
Ar 6.241115 6.444533 6.874168
Ar 3.560143 2.337483 -1.003467
Ar -166.155595 -46.359074 133.567122
10
Step 200 (LJ reduced units, box L=5.0)
Ar 0.183485 3.978057 -0.087240
Ar 2.811526 -1.958422 4.440758
Ar 2.842193 3.331675 6.823403
Ar -3.000307 2.316245 4.055452
Ar 1.143408 3.581726 -0.391563
Ar 5.274507 3.692404 4.838569
Ar 177.483710 47.484797 -144.906527
Ar 6.326778 6.694707 7.058999
Ar 3.516982 2.225623 -1.078280
Ar -174.865064 -48.830709 140.330285
10
Step 210 (LJ reduced units, box L=5.0)
Ar 0.091675 4.088491 -0.145014
Ar 2.875996 -2.091661 4.639378
Ar 2.920081 3.410143 7.087173
Ar -3.262744 2.328317 4.062984
Ar 1.146766 3.449825 -0.364439
Ar 5.355288 3.779561 4.941425
Ar 186.278428 49.795128 -152.321835
Ar 6.412442 6.944881 7.243830
Ar 3.473820 2.113763 -1.153094
Ar -183.574534 -51.302344 147.093448
10
Step 220 (LJ reduced units, box L=5.0)
Ar 0.033515 4.178253 -0.209615
Ar 2.940467 -2.224900 4.837997
Ar 2.997968 3.488610 7.350944
Ar -3.525180 2.340389 4.070516
Ar 1.116475 3.338595 -0.330488
Ar 5.436068 3.866718 5.044280
Ar 195.073146 52.105460 -159.737143
Ar 6.498105 7.195055 7.428661
Ar 3.430659 2.001902 -1.227907
Ar -192.284003 -53.773979 153.856611
10
Step 230 (LJ reduced units, box L=5.0)
Ar 0.003767 4.246279 -0.277554
Ar 3.004937 -2.358138 5.036617
Ar 3.075856 3.567077 7.614715
Ar -3.787617 2.352461 4.078048
Ar 1.057770 3.249101 -0.293199
Ar 5.516849 3.953874 5.147136
Ar 203.867863 54.415792 -167.152451
Ar 6.583768 7.445229 7.613492
Ar 3.387498 1.890042 -1.302721
Ar -200.993473 -56.245614 160.619774
10
Step 240 (LJ reduced units, box L=5.0)
Ar -0.005847 4.295405 -0.345875
Ar 3.069407 -2.491377 5.235237
Ar 3.153744 3.645544 7.878485
Ar -4.050054 2.364533 4.085579
Ar 0.978933 3.178507 -0.255528
Ar 5.597630 4.041031 5.249991
Ar 212.662581 56.726123 -174.567759
Ar 6.669431 7.695403 7.798322
Ar 3.344337 1.778182 -1.377534
Ar -209.702942 -58.717249 167.382937
10
Step 250 (LJ reduced units, box L=5.0)
Ar 0.000162 4.326874 -0.412797
Ar 3.133878 -2.624615 5.433857
Ar 3.231631 3.724011 8.142256
Ar -4.312491 2.376605 4.093111
Ar 0.884472 3.125571 -0.219255
Ar 5.678410 4.128188 5.352847
Ar 221.457299 59.036455 -181.983067
Ar 6.755094 7.945576 7.983153
Ar 3.301175 1.666321 -1.452348
Ar -218.412412 -61.188884 174.146099
10
Step 260 (LJ reduced units, box L=5.0)
Ar 0.019398 4.340371 -0.476824
Ar 3.198348 -2.757854 5.632477
Ar 3.309519 3.802478 8.406026
Ar -4.574928 2.388677 4.100643
Ar 0.776784 3.090606 -0.185878
Ar 5.759191 4.215345 5.455702
Ar 230.252016 61.346786 -189.398375
Ar 6.840757 8.195750 8.167984
Ar 3.258014 1.554461 -1.527161
Ar -227.121881 -63.660519 180.909262
10
Step 270 (LJ reduced units, box L=5.0)
Ar 0.050680 4.333905 -0.536174
Ar 3.262819 -2.891092 5.831097
Ar 3.387407 3.880946 8.669797
Ar -4.837364 2.400749 4.108174
Ar 0.657050 3.075603 -0.157178
Ar 5.839971 4.302502 5.558558
Ar 239.046734 63.657118 -196.813683
Ar 6.926420 8.445924 8.352815
Ar 3.214853 1.442601 -1.601975
Ar -235.831351 -66.132154 187.672425
10
Step 280 (LJ reduced units, box L=5.0)
Ar 0.093581 4.303058 -0.588108
Ar 3.327289 -3.024331 6.029717
Ar 3.465294 3.959413 8.933568
Ar -5.099801 2.412821 4.115706
Ar 0.525698 3.084983 -0.135893
Ar 5.920752 4.389658 5.661413
Ar 247.841451 65.967450 -204.228991
Ar 7.012083 8.696098 8.537646
Ar 3.171692 1.330740 -1.676789
Ar -244.540821 -68.603788 194.435588
10
Step 290 (LJ reduced units, box L=5.0)
Ar 0.147783 4.239595 -0.627786
Ar 3.391760 -3.157569 6.228337
Ar 3.543182 4.037880 9.197338
Ar -5.362238 2.424893 4.123238
Ar 0.383044 3.126979 -0.126866
Ar 6.001533 4.476815 5.764269
Ar 256.636169 68.277781 -211.644299
Ar 7.097747 8.946272 8.722476
Ar 3.128530 1.218880 -1.751602
Ar -253.250290 -71.075423 201.198751
10
Step 300 (LJ reduced units, box L=5.0)
Ar 0.209748 4.141731 -0.652245
Ar 3.456230 -3.290808 6.426957
Ar 3.621070 4.116347 9.461109
Ar -5.624675 2.436965 4.130770
Ar 0.232627 3.203375 -0.133056
Ar 6.082313 4.563972 5.867124
Ar 265.430887 70.588113 -219.059607
Ar 7.183410 9.196446 8.907307
Ar 3.085369 1.107020 -1.826416
Ar -261.959760 -73.547058 207.961914
10
Step 310 (LJ reduced units, box L=5.0)
Ar 0.275542 4.111824 -0.717327
Ar 3.520701 -3.424046 6.625577
Ar 3.698957 4.194814 9.724880
Ar -5.887112 2.449037 4.138301
Ar 0.078381 3.211814 -0.098624
Ar 6.163094 4.651129 5.969979
Ar 274.225604 72.898444 -226.474915
Ar 7.269073 9.446620 9.092138
Ar 3.042208 0.995160 -1.901229
Ar -270.669229 -76.018693 214.725076
10
Step 320 (LJ reduced units, box L=5.0)
Ar 0.343081 4.118621 -0.804172
Ar 3.585171 -3.557285 6.824197
Ar 3.776845 4.273282 9.988650
Ar -6.149549 2.461110 4.145833
Ar -0.077610 3.183549 -0.042429
Ar 6.243875 4.738286 6.072835
Ar 283.020322 75.208776 -233.890223
Ar 7.354736 9.696794 9.276969
Ar 2.999046 0.883299 -1.976043
Ar -279.378699 -78.490328 221.488239
10
Step 330 (LJ reduced units, box L=5.0)
Ar 0.396783 4.094507 -0.865874
Ar 3.649642 -3.690523 7.022817
Ar 3.854733 4.351749 10.252421
Ar -6.411985 2.473182 4.153365
Ar -0.219763 3.186195 -0.011376
Ar 6.324655 4.825442 6.175690
Ar 291.815039 77.519108 -241.305531
Ar 7.440399 9.946968 9.461799
Ar 2.955885 0.771439 -2.050856
Ar -288.088168 -80.961963 228.251402
10
Step 340 (LJ reduced units, box L=5.0)
Ar 0.435537 4.047905 -0.906595
Ar 3.714112 -3.823762 7.221437
Ar 3.932620 4.430216 10.516191
Ar -6.674422 2.485254 4.160897
Ar -0.346969 3.211329 -0.001305
Ar 6.405436 4.912599 6.278546
Ar 300.609757 79.829439 -248.720839
Ar 7.526062 10.197142 9.646630
Ar 2.912724 0.659579 -2.125670
Ar -296.797638 -83.433598 235.014565
10
Step 350 (LJ reduced units, box L=5.0)
Ar 0.460072 3.985928 -0.930767
Ar 3.778583 -3.957000 7.420056
Ar 4.010508 4.508683 10.779962
Ar -6.936859 2.497326 4.168428
Ar -0.459956 3.251839 -0.007783
Ar 6.486216 4.999756 6.381401
Ar 309.404475 82.139771 -256.136147
Ar 7.611725 10.447316 9.831461
Ar 2.869563 0.547718 -2.200484
Ar -305.507107 -85.905233 241.777728
10
Step 360 (LJ reduced units, box L=5.0)
Ar 0.470329 3.912505 -0.940586
Ar 3.843053 -4.090239 7.618676
Ar 4.088395 4.587150 11.043733
Ar -7.199296 2.509398 4.175960
Ar -0.558665 3.303794 -0.028614
Ar 6.566997 5.086913 6.484257
Ar 318.199192 84.450102 -263.551455
Ar 7.697388 10.697490 10.016292
Ar 2.826401 0.435858 -2.275297
Ar -314.216577 -88.376868 248.540890
10
Step 370 (LJ reduced units, box L=5.0)
Ar 0.465151 3.829963 -0.936731
Ar 3.907523 -4.223477 7.817296
Ar 4.166283 4.665617 11.307503
Ar -7.461733 2.521470 4.183492
Ar -0.641939 3.364868 -0.063118
Ar 6.647778 5.174070 6.587112
Ar 326.993910 86.760434 -270.966763
Ar 7.783051 10.947664 10.201123
Ar 2.783240 0.323998 -2.350111
Ar -322.926047 -90.848502 255.304053
10
Step 380 (LJ reduced units, box L=5.0)
Ar 0.441859 3.739882 -0.918623
Ar 3.971994 -4.356716 8.015916
Ar 4.244171 4.744085 11.571274
Ar -7.724169 2.533542 4.191023
Ar -0.707099 3.433481 -0.111877
Ar 6.728558 5.261226 6.689968
Ar 335.788628 89.070766 -278.382071
Ar 7.868715 11.197837 10.385953
Ar 2.740079 0.212137 -2.424924
Ar -331.635516 -93.320137 262.067216
10
Step 390 (LJ reduced units, box L=5.0)
Ar 0.395225 3.643739 -0.884217
Ar 4.036464 -4.489955 8.214536
Ar 4.322058 4.822552 11.835045
Ar -7.986606 2.545614 4.198555
Ar -0.748917 3.508156 -0.176933
Ar 6.809339 5.348383 6.792823
Ar 344.583345 91.381097 -285.797379
Ar 7.954378 11.448011 10.570784
Ar 2.696918 0.100277 -2.499738
Ar -340.344986 -95.791772 268.830379
10
Step 400 (LJ reduced units, box L=5.0)
Ar 0.315944 3.544032 -0.829801
Ar 4.100935 -4.623193 8.413156
Ar 4.399946 4.901019 12.098815
Ar -8.249043 2.557686 4.206087
Ar -0.758087 3.586396 -0.261997
Ar 6.890119 5.435540 6.895679
Ar 353.378063 93.691429 -293.212687
Ar 8.040041 11.698185 10.755615
Ar 2.653756 -0.011583 -2.574551
Ar -349.054455 -98.263407 275.593542
10
Step 410 (LJ reduced units, box L=5.0)
Ar 0.209529 3.444115 -0.760316
Ar 4.165405 -4.756432 8.611776
Ar 4.477834 4.979486 12.362586
Ar -8.511480 2.569758 4.213619
Ar -0.740124 3.664845 -0.362133
Ar 6.970900 5.522697 6.998534
Ar 362.172780 96.001760 -300.627995
Ar 8.125704 11.948359 10.940446
Ar 2.610595 -0.123443 -2.649365
Ar -357.763925 -100.735042 282.356705
10
Step 420 (LJ reduced units, box L=5.0)
Ar 0.192608 3.319827 -0.726332
Ar 4.229876 -4.889670 8.810396
Ar 4.555721 5.057953 12.626356
Ar -8.773917 2.581830 4.221150
Ar -0.811655 3.767665 -0.426766
Ar 7.051681 5.609854 7.101390
Ar 370.967498 98.312092 -308.043303
Ar 8.211367 12.198533 11.125277
Ar 2.567434 -0.235304 -2.724179
Ar -366.473394 -103.206677 289.119867
10
Step 430 (LJ reduced units, box L=5.0)
Ar 0.190335 3.193792 -0.699429
Ar 4.294346 -5.022909 9.009016
Ar 4.633609 5.136420 12.890127
Ar -9.036353 2.593902 4.228682
Ar -0.897834 3.872232 -0.484319
Ar 7.132461 5.697010 7.204245
Ar 379.762216 100.622424 -315.458611
Ar 8.297030 12.448707 11.310107
Ar 2.524273 -0.347164 -2.798992
Ar -375.182864 -105.678312 295.883030
10
Step 440 (LJ reduced units, box L=5.0)
Ar 0.152659 3.089596 -0.665395
Ar 4.358817 -5.156147 9.207636
Ar 4.711497 5.214888 13.153898
Ar -9.298790 2.605974 4.236214
Ar -0.948610 3.954961 -0.549003
Ar 7.213242 5.784167 7.307101
Ar 388.556933 102.932755 -322.873919
Ar 8.382693 12.698881 11.494938
Ar 2.481111 -0.459024 -2.873806
Ar -383.892333 -108.149947 302.646193
10
Step 450 (LJ reduced units, box L=5.0)
Ar 0.089344 3.005312 -0.628518
Ar 4.423287 -5.289386 9.406256
Ar 4.789384 5.293355 13.417668
Ar -9.561227 2.618046 4.243746
Ar -0.973747 4.017777 -0.616529
Ar 7.294023 5.871324 7.409956
Ar 397.351651 105.243087 -330.289227
Ar 8.468356 12.949055 11.679769
Ar 2.437950 -0.570885 -2.948619
Ar -392.601803 -110.621582 309.409356
10
Step 460 (LJ reduced units, box L=5.0)
Ar 0.007234 2.938818 -0.591367
Ar 4.487758 -5.422624 9.604876
Ar 4.867272 5.371822 13.681439
Ar -9.823664 2.630118 4.251277
Ar -0.980088 4.062803 -0.684330
Ar 7.374803 5.958481 7.512811
Ar 406.146369 107.553418 -337.704535
Ar 8.554020 13.199229 11.864600
Ar 2.394789 -0.682745 -3.023433
Ar -401.311272 -113.093217 316.172519
10
Step 470 (LJ reduced units, box L=5.0)
Ar -0.090027 2.889532 -0.555620
Ar 4.552228 -5.555863 9.803496
Ar 4.945160 5.450289 13.945210
Ar -10.086101 2.642190 4.258809
Ar -0.971280 4.090622 -0.750727
Ar 7.455584 6.045638 7.615667
Ar 414.941086 109.863750 -345.119843
Ar 8.639683 13.449403 12.049430
Ar 2.351627 -0.794605 -3.098246
Ar -410.020742 -115.564851 322.935681
10
Step 480 (LJ reduced units, box L=5.0)
Ar -0.200564 2.858366 -0.522827
Ar 4.616699 -5.689101 10.002115
Ar 5.023047 5.528756 14.208980
Ar -10.348538 2.654262 4.266341
Ar -0.949194 4.100319 -0.814170
Ar 7.536364 6.132795 7.718522
Ar 423.735804 112.174081 -352.535151
Ar 8.725346 13.699577 12.234261
Ar 2.308466 -0.906466 -3.173060
Ar -418.730212 -118.036486 329.698844
10
Step 490 (LJ reduced units, box L=5.0)
Ar -0.323598 2.848056 -0.494967
Ar 4.681169 -5.822340 10.200735
Ar 5.100935 5.607223 14.472751
Ar -10.610974 2.666334 4.273873
Ar -0.914612 4.089162 -0.872679
Ar 7.617145 6.219951 7.821378
Ar 432.530521 114.484413 -359.950459
Ar 8.811009 13.949751 12.419092
Ar 2.265305 -1.018326 -3.247873
Ar -427.439681 -120.508121 336.462007
10
Step 500 (LJ reduced units, box L=5.0)
Ar -0.459058 2.864201 -0.475253
Ar 4.745640 -5.955578 10.399355
Ar 5.178822 5.685691 14.736521
Ar -10.873411 2.678406 4.281404
Ar -0.867603 4.051549 -0.923043
Ar 7.697926 6.307108 7.924233
Ar 441.325239 116.794745 -367.365767
Ar 8.896672 14.199924 12.603923
Ar 2.222144 -1.130186 -3.322687
Ar -436.149151 -122.979756 343.225170
10
Step 510 (LJ reduced units, box L=5.0)
Ar -0.606558 2.916191 -0.469220
Ar 4.810110 -6.088817 10.597975
Ar 5.256710 5.764158 15.000292
Ar -11.135848 2.690478 4.288936
Ar -0.808555 3.978091 -0.959727
Ar 7.778706 6.394265 8.027089
Ar 450.119957 119.105076 -374.781075
Ar 8.982335 14.450098 12.788754
Ar 2.178982 -1.242046 -3.397501
Ar -444.858620 -125.451391 349.988333
10
Step 520 (LJ reduced units, box L=5.0)
Ar -0.759571 2.984337 -0.469304
Ar 4.874580 -6.222055 10.796595
Ar 5.334598 5.842625 15.264063
Ar -11.398285 2.702550 4.296468
Ar -0.743994 3.888478 -0.990292
Ar 7.859487 6.481422 8.129944
Ar 458.914674 121.415408 -382.196383
Ar 9.067998 14.700272 12.973584
Ar 2.135821 -1.353907 -3.472314
Ar -453.568090 -127.923026 356.751496
10
Step 530 (LJ reduced units, box L=5.0)
Ar -0.915112 2.958093 -0.414503
Ar 4.939051 -6.355294 10.995215
Ar 5.412485 5.921092 15.527833
Ar -11.660722 2.714622 4.303999
Ar -0.676905 3.893254 -1.075743
Ar 7.940267 6.568579 8.232800
Ar 467.709392 123.725739 -389.611691
Ar 9.153661 14.950446 13.158415
Ar 2.092660 -1.465767 -3.547128
Ar -462.277559 -130.394661 363.514658
10
Step 540 (LJ reduced units, box L=5.0)
Ar -1.065878 2.936234 -0.364817
Ar 5.003521 -6.488532 11.193835
Ar 5.490373 5.999559 15.791604
Ar -11.923158 2.726694 4.311531
Ar -0.614591 3.893645 -1.156079
Ar 8.021048 6.655735 8.335655
Ar 476.504109 126.036071 -397.026999
Ar 9.239324 15.200620 13.343246
Ar 2.049499 -1.577627 -3.621941
Ar -470.987029 -132.866296 370.277821
10
Step 550 (LJ reduced units, box L=5.0)
Ar -1.202874 2.944329 -0.339694
Ar 5.067992 -6.621771 11.392455
Ar 5.568261 6.078026 16.055375
Ar -12.185595 2.738766 4.319063
Ar -0.566047 3.864082 -1.211851
Ar 8.101829 6.742892 8.438511
Ar 485.298827 128.346403 -404.442307
Ar 9.324988 15.450794 13.528077
Ar 2.006337 -1.689488 -3.696755
Ar -479.696498 -135.337931 377.040984
10
Step 560 (LJ reduced units, box L=5.0)
Ar -1.326057 2.972731 -0.333692
Ar 5.132462 -6.755010 11.591075
Ar 5.646148 6.156494 16.319145
Ar -12.448032 2.750838 4.326595
Ar -0.531315 3.814212 -1.248503
Ar 8.182609 6.830049 8.541366
Ar 494.093545 130.656734 -411.857615
Ar 9.410651 15.700968 13.712908
Ar 1.963176 -1.801348 -3.771568
Ar -488.405968 -137.809565 383.804147
10
Step 570 (LJ reduced units, box L=5.0)
Ar -1.435743 3.015553 -0.343299
Ar 5.196933 -6.888248 11.789695
Ar 5.724036 6.234961 16.582916
Ar -12.710469 2.762910 4.334126
Ar -0.510081 3.749923 -1.269546
Ar 8.263390 6.917206 8.644222
Ar 502.888262 132.967066 -419.272923
Ar 9.496314 15.951142 13.897738
Ar 1.920015 -1.913208 -3.846382
Ar -497.115438 -140.281200 390.567310
10
Step 580 (LJ reduced units, box L=5.0)
Ar -1.531416 3.069521 -0.366944
Ar 5.261403 -7.021487 11.988315
Ar 5.801924 6.313428 16.846686
Ar -12.972906 2.774982 4.341658
Ar -0.502860 3.674487 -1.276551
Ar 8.344170 7.004363 8.747077
Ar 511.682980 135.277397 -426.688231
Ar 9.581977 16.201316 14.082569
Ar 1.876853 -2.025069 -3.921196
Ar -505.824907 -142.752835 397.330473
10
Step 590 (LJ reduced units, box L=5.0)
Ar -1.611420 3.132674 -0.404428
Ar 5.325874 -7.154725 12.186935
Ar 5.879811 6.391895 17.110457
Ar -13.235343 2.787054 4.349190
Ar -0.511308 3.589866 -1.269716
Ar 8.424951 7.091519 8.849933
Ar 520.477698 137.587729 -434.103539
Ar 9.667640 16.451490 14.267400
Ar 1.833692 -2.136929 -3.996009
Ar -514.534377 -145.224470 404.093635
10
Step 600 (LJ reduced units, box L=5.0)
Ar -1.672356 3.203654 -0.456855
Ar 5.390344 -7.287964 12.385554
Ar 5.957699 6.470362 17.374228
Ar -13.497779 2.799126 4.356722
Ar -0.538823 3.497419 -1.247939
Ar 8.505732 7.178676 8.952788
Ar 529.272415 139.898061 -441.518847
Ar 9.753303 16.701664 14.452231
Ar 1.790531 -2.248789 -4.070823
Ar -523.243846 -147.696105 410.856798
10
Step 610 (LJ reduced units, box L=5.0)
Ar -1.707759 3.281038 -0.526980
Ar 5.454815 -7.421202 12.584174
Ar 6.035587 6.548830 17.637998
Ar -13.760216 2.811198 4.364253
Ar -0.591872 3.398567 -1.208464
Ar 8.586512 7.265833 9.055643
Ar 538.067133 142.208392 -448.934155
Ar 9.838966 16.951838 14.637061
Ar 1.747370 -2.360649 -4.145636
Ar -531.953316 -150.167740 417.619961
10
Step 620 (LJ reduced units, box L=5.0)
Ar -1.707661 3.361883 -0.618630
Ar 5.519285 -7.554441 12.782794
Ar 6.113474 6.627297 17.901769
Ar -14.022653 2.823270 4.371785
Ar -0.680422 3.296253 -1.147464
Ar 8.667293 7.352990 9.158499
Ar 546.861850 144.518724 -456.349463
Ar 9.924629 17.202011 14.821892
Ar 1.704208 -2.472510 -4.220450
Ar -540.662785 -152.639375 424.383124
10
Step 630 (LJ reduced units, box L=5.0)
Ar -1.709640 3.446783 -0.711432
Ar 5.583756 -7.687679 12.981414
Ar 6.191362 6.705764 18.165540
Ar -14.285090 2.835342 4.379317
Ar -0.766895 3.189886 -1.085312
Ar 8.748074 7.440147 9.261354
Ar 555.656568 146.829055 -463.764771
Ar 10.010293 17.452185 15.006723
Ar 1.661047 -2.584370 -4.295263
Ar -549.372255 -155.111010 431.146287
10
Step 640 (LJ reduced units, box L=5.0)
Ar -1.807662 3.555777 -0.764968
Ar 5.648226 -7.820918 13.180034
Ar 6.269249 6.784231 18.429310
Ar -14.547527 2.847414 4.386848
Ar -0.757325 3.059424 -1.062426
Ar 8.828854 7.527303 9.364210
Ar 564.451286 149.139387 -471.180079
Ar 10.095956 17.702359 15.191554
Ar 1.617886 -2.696230 -4.370077
Ar -558.081724 -157.582645 437.909449
10
Step 650 (LJ reduced units, box L=5.0)
Ar -1.884975 3.653044 -0.823268
Ar 5.712697 -7.954156 13.378654
Ar 6.347137 6.862698 18.693081
Ar -14.809963 2.859486 4.394380
Ar -0.768464 2.940690 -1.034775
Ar 8.909635 7.614460 9.467065
Ar 573.246003 151.449719 -478.595387
Ar 10.181619 17.952533 15.376385
Ar 1.574725 -2.808091 -4.444891
Ar -566.791194 -160.054280 444.672612
10
Step 660 (LJ reduced units, box L=5.0)
Ar -1.929293 3.729575 -0.887998
Ar 5.777167 -8.087395 13.577274
Ar 6.425025 6.941165 18.956851
Ar -15.072400 2.871558 4.401912
Ar -0.812597 2.842691 -1.000695
Ar 8.990415 7.701617 9.569921
Ar 582.040721 153.760050 -486.010695
Ar 10.267282 18.202707 15.561215
Ar 1.531563 -2.919951 -4.519704
Ar -575.500664 -162.525914 451.435775
10
Step 670 (LJ reduced units, box L=5.0)
Ar -1.950262 3.787743 -0.955186
Ar 5.841637 -8.220633 13.775894
Ar 6.502912 7.019633 19.220622
Ar -15.334837 2.883630 4.409444
Ar -0.880080 2.763055 -0.964156
Ar 9.071196 7.788774 9.672776
Ar 590.835438 156.070382 -493.426003
Ar 10.352945 18.452881 15.746046
Ar 1.488402 -3.031811 -4.594518
Ar -584.210133 -164.997549 458.198938
10
Step 680 (LJ reduced units, box L=5.0)
Ar -1.953449 3.828965 -1.022570
Ar 5.906108 -8.353872 13.974514
Ar 6.580800 7.098100 19.484393
Ar -15.597274 2.895702 4.416975
Ar -0.965345 2.700365 -0.927423
Ar 9.151977 7.875931 9.775632
Ar 599.630156 158.380713 -500.841311
Ar 10.438608 18.703055 15.930877
Ar 1.445241 -3.143672 -4.669331
Ar -592.919603 -167.469184 464.962101
10
Step 690 (LJ reduced units, box L=5.0)
Ar -1.941767 3.853222 -1.088532
Ar 5.970578 -8.487110 14.173134
Ar 6.658688 7.176567 19.748163
Ar -15.859711 2.907774 4.424507
Ar -1.065479 2.654640 -0.892111
Ar 9.232757 7.963087 9.878487
Ar 608.424874 160.691045 -508.256619
Ar 10.524271 18.953229 16.115708
Ar 1.402080 -3.255532 -4.744145
Ar -601.629072 -169.940819 471.725264
10
Step 700 (LJ reduced units, box L=5.0)
Ar -1.916605 3.858993 -1.151444
Ar 6.035049 -8.620349 14.371754
Ar 6.736575 7.255034 20.011934
Ar -16.122148 2.919846 4.432039
Ar -1.179092 2.627401 -0.859848
Ar 9.313538 8.050244 9.981343
Ar 617.219591 163.001376 -515.671927
Ar 10.609934 19.203403 16.300539
Ar 1.358918 -3.367392 -4.818958
Ar -610.338542 -172.412454 478.488426
10
Step 710 (LJ reduced units, box L=5.0)
Ar -1.878331 3.842697 -1.209076
Ar 6.099519 -8.753587 14.570374
Ar 6.814463 7.333501 20.275705
Ar -16.384584 2.931918 4.439571
Ar -1.305819 2.622230 -0.832866
Ar 9.394318 8.137401 10.084198
Ar 626.014309 165.311708 -523.087235
Ar 10.695597 19.453577 16.485369
Ar 1.315757 -3.479253 -4.893772
Ar -619.048011 -174.884089 485.251589
10
Step 720 (LJ reduced units, box L=5.0)
Ar -1.826655 3.797360 -1.257634
Ar 6.163990 -8.886826 14.768994
Ar 6.892351 7.411968 20.539475
Ar -16.647021 2.943990 4.447102
Ar -1.445946 2.646099 -0.814957
Ar 9.475099 8.224558 10.187054
Ar 634.809027 167.622040 -530.502543
Ar 10.781261 19.703751 16.670200
Ar 1.272596 -3.591113 -4.968586
Ar -627.757481 -177.355724 492.014752
10
Step 730 (LJ reduced units, box L=5.0)
Ar -1.762644 3.714216 -1.291562
Ar 6.228460 -9.020065 14.967613
Ar 6.970238 7.490436 20.803246
Ar -16.909458 2.956062 4.454634
Ar -1.598409 2.707775 -0.811679
Ar 9.555880 8.311715 10.289909
Ar 643.603744 169.932371 -537.917851
Ar 10.866924 19.953925 16.855031
Ar 1.229434 -3.702973 -5.043399
Ar -636.466950 -179.827359 498.777915
10
Step 740 (LJ reduced units, box L=5.0)
Ar -1.697181 3.654206 -1.339403
Ar 6.292931 -9.153303 15.166233
Ar 7.048126 7.568903 21.067016
Ar -17.171895 2.968134 4.462166
Ar -1.752325 2.746317 -0.794489
Ar 9.636660 8.398871 10.392764
Ar 652.398462 172.242703 -545.333159
Ar 10.952587 20.204099 17.039862
Ar 1.186273 -3.814833 -5.118213
Ar -645.176420 -182.298994 505.541078
10
Step 750 (LJ reduced units, box L=5.0)
Ar -1.631547 3.674127 -1.432635
Ar 6.357401 -9.286542 15.364853
Ar 7.126013 7.647370 21.330787
Ar -17.434332 2.980206 4.469697
Ar -1.906410 2.704929 -0.731906
Ar 9.717441 8.486028 10.495620
Ar 661.193179 174.553034 -552.748467
Ar 11.038250 20.454272 17.224693
Ar 1.143112 -3.926694 -5.193026
Ar -653.885890 -184.770628 512.304241
10
Step 760 (LJ reduced units, box L=5.0)
Ar -1.574578 3.667057 -1.505797
Ar 6.421872 -9.419780 15.563473
Ar 7.203901 7.725837 21.594558
Ar -17.696768 2.992278 4.477229
Ar -2.051830 2.690531 -0.689394
Ar 9.798222 8.573185 10.598475
Ar 669.987897 176.863366 -560.163775
Ar 11.123913 20.704446 17.409523
Ar 1.099951 -4.038554 -5.267840
Ar -662.595359 -187.242263 519.067403
10
Step 770 (LJ reduced units, box L=5.0)
Ar -1.530576 3.632742 -1.556373
Ar 6.486342 -9.553019 15.762093
Ar 7.281789 7.804304 21.858328
Ar -17.959205 3.004350 4.484761
Ar -2.184285 2.703378 -0.669468
Ar 9.879002 8.660342 10.701331
Ar 678.782615 179.173698 -567.579083
Ar 11.209576 20.954620 17.594354
Ar 1.056789 -4.150414 -5.342653
Ar -671.304829 -189.713898 525.830566
10
Step 780 (LJ reduced units, box L=5.0)
Ar -1.499435 3.579869 -1.589345
Ar 6.550813 -9.686257 15.960713
Ar 7.359676 7.882771 22.122099
Ar -18.221642 3.016422 4.492293
Ar -2.303877 2.734783 -0.667145
Ar 9.959783 8.747499 10.804186
Ar 687.577332 181.484029 -574.994391
Ar 11.295239 21.204794 17.779185
Ar 1.013628 -4.262275 -5.417467
Ar -680.014298 -192.185533 532.593729
10
Step 790 (LJ reduced units, box L=5.0)
Ar -1.481255 3.513291 -1.607408
Ar 6.615283 -9.819496 16.159333
Ar 7.437564 7.961239 22.385870
Ar -18.484079 3.028494 4.499824
Ar -2.410509 2.779893 -0.679732
Ar 10.040563 8.834655 10.907042
Ar 696.372050 183.794361 -582.409699
Ar 11.380902 21.454968 17.964016
Ar 0.970467 -4.374135 -5.492280
Ar -688.723768 -194.657168 539.356892
10
Step 800 (LJ reduced units, box L=5.0)
Ar -1.476985 3.435727 -1.611580
Ar 6.679753 -9.952734 16.357953
Ar 7.515452 8.039706 22.649640
Ar -18.746516 3.040566 4.507356
Ar -2.503231 2.835990 -0.706210
Ar 10.121344 8.921812 11.009897
Ar 705.166767 186.104692 -589.825007
Ar 11.466566 21.705142 18.148846
Ar 0.927306 -4.485995 -5.567094
Ar -697.433237 -197.128803 546.120055
10
Step 810 (LJ reduced units, box L=5.0)
Ar -1.488813 3.348807 -1.601580
Ar 6.744224 -10.085973 16.556573
Ar 7.593339 8.118173 22.913411
Ar -19.008953 3.052638 4.514888
Ar -2.579855 2.901442 -0.746860
Ar 10.202125 9.008969 11.112753
Ar 713.961485 188.415024 -597.240315
Ar 11.552229 21.955316 18.333677
Ar 0.884144 -4.597856 -5.641908
Ar -706.142707 -199.600438 552.883217
10
Step 820 (LJ reduced units, box L=5.0)
Ar -1.520980 3.253679 -1.575722
Ar 6.808694 -10.219211 16.755193
Ar 7.671227 8.196640 23.177181